69
 energy: -113.889903778809 gnorm: 0.010452161498 xtb: 6.7.0 (08769fc)
C           -0.94683037409493        3.59334622309299       -1.58504637797290
C            0.31031038649153        3.84223948193196       -2.11691564991410
C            1.41181261313076        3.20446989597757       -1.56170136491795
C            1.21361787960128        2.27714981236783       -0.53620612261181
C            2.32251206290341        1.35281368932425       -0.13974021501351
C            3.58697535414956        1.90675293164260       -0.03780025384996
C            4.68248082694756        1.06469892740048        0.06582991911137
C            4.45002197695304       -0.29259184009604       -0.02157678846669
C            3.14474123120236       -0.80078634037162       -0.05623752967922
N            2.07999999999999        0.00000000000000       -0.00000000000001
N           -0.00000000000000        2.07999999999996       -0.00000000000001
C           -1.04993847163003        2.72369924229688       -0.51274637411212
H           -1.83346225204381        4.02625157197532       -2.02147056719274
H            0.42629139209743        4.48459696223774       -2.97697707871282
H            2.39268141356318        3.35334477506361       -1.98512558127988
H            3.69745586748313        2.97989813701237       -0.04193551521690
H            5.67586730326623        1.46518367013481        0.18855582706344
H            5.28328702518220       -0.97557771745501       -0.00877330200483
H            2.56435450047126       -2.93047269602307        2.24378449145520
H           -2.01310275038845        2.51028325941441       -0.06865657809745
C           -1.74782279267123        1.71026426032135        2.43590122822428
C           -2.88356826633423        0.80595977872987        2.23289281926845
C           -2.41813875210378       -0.63764551947907        2.40668685230087
C           -0.97283692961412       -0.92936052862277        2.33101069958771
C            0.74572459918140       -2.77256168087647        1.11713489110505
C            2.11693236384724       -2.29317481711109        1.48535674906681
C            2.96843384839279       -2.26997607114739        0.21540448087319
C            2.48492956673336       -3.41814875685604       -0.76223141363110
C            1.01047755480083       -3.48108095511941       -1.47558929757305
N            0.00000000000001       -2.08000000000000       -0.00000000000002
N           -0.00000000000001       -0.00000000000003        2.08000000000002
C           -0.46717760635633        1.30723500335233        2.35001442666886
H           -1.98271446901936        2.72284994929327        2.72176652268954
H           -3.82897730561104        1.10206755423710        2.66946074409827
H           -2.40351042136477       -1.95547466668792       -0.74937807789732
H            2.01822980667749       -1.30502810818057        1.95081543255675
H            3.96864371760380       -2.64320897520069        0.46247252451103
H            3.23072165108946       -3.48818869129576       -1.56226502108201
H            0.97954646155701       -4.44352330520762       -1.98114794108864
H            0.33754415303249        2.00720242300291        2.54043886264258
C            1.32226066664421       -0.70418308335555       -3.91193084603174
C            0.83114383147268        0.28124000154058       -3.08709923545953
N           -0.00000000000000        0.00000000000000       -2.08000000000005
C           -0.48648166228359       -1.20228874389905       -1.79919590045288
C            0.44166614887772       -2.29262603420216       -2.29951121445914
C            1.21048039852938       -1.99583530404337       -3.40600828652984
C            0.37725454993647       -3.27147126991713       -0.20886137198807
C            0.00183195246100       -3.23356715913211        2.29496422559613
C           -0.89785268463504       -2.32333763496661        2.77005242088105
C           -2.16251311062882       -2.67113267335721        3.40938442374953
C           -3.07082851701322       -1.72659821077103        3.13877228770447
C           -2.98913812473349       -0.10984291257177        1.05503653587684
N           -2.07999999999992       -0.00000000000008        0.00000000000004
C           -1.79843758541913       -1.04289461993277       -0.80965260301540
O            0.23330159531734       -4.47663485395953        2.68418944153015
C            1.44973089115495       -5.14470990313854        2.28130656034692
C            1.79739966766717       -5.40521300686256        0.77958461733952
O            2.70492675790607       -4.59810378872819        0.01055887921578
H            1.89522965727224       -0.48819393271016       -4.79600238815602
H            1.09680148572117        1.31894805399495       -3.22055682053001
H            1.85347753102712       -2.77283586575938       -3.79555688603519
H           -2.31330152680721       -3.60928208192825        3.90629868704931
H           -4.11828669667608       -1.73595695595370        3.37219631933688
H           -3.97095414333199       -0.49288087155756        0.78801196892617
H            2.29262509330324       -4.68560047606297        2.80905406182412
H            1.30290339764170       -6.13128913798663        2.72750607280186
H            2.38512267142624       -6.32864069010207        0.82357397579571
H            0.87445694593696       -5.61929202246855        0.23714481224158
Ru          -0.00000000000002        0.00000000000005        0.00000000000000
