69
 energy: -113.889903730949 gnorm: 0.010452217345 xtb: 6.7.0 (08769fc)
C           -0.94683502738035        3.59333565431211       -1.58505588008430
C            0.31030450224334        3.84222716983373       -2.11692867231418
C            1.41180866161378        3.20446243036566       -1.56171124200377
C            1.21361708789608        2.27714768296047       -0.53620946314791
C            2.32251365279646        1.35281423099763       -0.13973967916624
C            3.58697730006117        1.90675210955954       -0.03779798048586
C            4.68248075884488        1.06469714165249        0.06583488211245
C            4.45002227778236       -0.29259275087877       -0.02157173062033
C            3.14474172967233       -0.80078624846370       -0.05623541516464
N            2.07999999999999        0.00000000000001       -0.00000000000002
N           -0.00000000000000        2.08000000000003        0.00000000000004
C           -1.04994001334346        2.72369636417109       -0.51274895721744
H           -1.83346748110648        4.02623694462451       -2.02148218069954
H            0.42628258976107        4.48457916138696       -2.97699435984335
H            2.39267695823596        3.35333631636442       -1.98513709271345
H            3.69745995005084        2.97989730787134       -0.04193488990645
H            5.67586652288358        1.46518060895399        0.18856466447817
H            5.28328759100599       -0.97558006688330       -0.00876443146688
H            2.56435260889086       -2.93048359771744        2.24378149946872
H           -2.01310336180771        2.51028448348646       -0.06865512277572
C           -1.74782365806560        1.71026367763069        2.43590032857524
C           -2.88356933822786        0.80595899183263        2.23289104655821
C           -2.41813985239382       -0.63764602115967        2.40668603318320
C           -0.97283752942784       -0.92936044228633        2.33100921376145
C            0.74572451893651       -2.77256195308066        1.11713337940806
C            2.11693325626064       -2.29318014140286        1.48535615423567
C            2.96843413678029       -2.26997633388261        0.21540317035562
C            2.48492724687611       -3.41814769663350       -0.76223313770573
C            1.01047467636510       -3.48107966043978       -1.47559205797289
N           -0.00000000000002       -2.08000000000002        0.00000000000007
N           -0.00000000000005       -0.00000000000005        2.07999999999999
C           -0.46717805006592        1.30723494188398        2.35001412387275
H           -1.98271432576970        2.72284986243511        2.72176515914565
H           -3.82897924025750        1.10206616210108        2.66945857818727
H           -2.40352409210602       -1.95546639982808       -0.74939281795895
H            2.01823343866920       -1.30503519796815        1.95081932429214
H            3.96864341493381       -2.64321104491963        0.46246967590777
H            3.23071774275105       -3.48818585005588       -1.56226786754131
H            0.97954295913830       -4.44352172574657       -1.98115112156226
H            0.33754281309188        2.00720320488468        2.54043934397011
C            1.32225252402157       -0.70418462753865       -3.91193614539958
C            0.83114088716165        0.28123845958365       -3.08710205457521
N            0.00000000000000        0.00000000000006       -2.08000000000011
C           -0.48648454593497       -1.20228760622928       -1.79919598896692
C            0.44166123375021       -2.29262544105743       -2.29951318001633
C            1.21047318653516       -1.99583601504593       -3.40601224727054
C            0.37725457537345       -3.27147025167471       -0.20886345807721
C            0.00183014915166       -3.23356830541809        2.29496101755058
C           -0.89785415848144       -2.32333860330868        2.77004954084323
C           -2.16251569222391       -2.67113702886714        3.40937900687204
C           -3.07083059524309       -1.72660102511037        3.13876644563186
C           -2.98913886846734       -0.10984452481479        1.05503475440847
N           -2.07999999999994       -0.00000000000018        0.00000000000011
C           -1.79844220301233       -1.04289028320880       -0.80965905523657
O            0.23329613518163       -4.47663764591790        2.68418195685438
C            1.44972765526828       -5.14470930343041        2.28130002597575
C            1.79739976269409       -5.40521484550962        0.77957922078469
O            2.70492627870184       -4.59810261205141        0.01055604809168
H            1.89521847918396       -0.48819563947071       -4.79600935550752
H            1.09679911489143        1.31894577628436       -3.22056177449263
H            1.85346833000624       -2.77283728066205       -3.79556271807605
H           -2.31330454847172       -3.60928813456896        3.90629211707946
H           -4.11828751452116       -1.73596200305625        3.37218524650218
H           -3.97095687816892       -0.49287853612743        0.78801029777613
H            2.29262005789793       -4.68559613189219        2.80904794619517
H            1.30290043144776       -6.13128901747512        2.72749888398179
H            2.38512417288291       -6.32864213312342        0.82356960984857
H            0.87445781924811       -5.61929448782422        0.23713759244989
Ru           0.00000000000004        0.00000000000004        0.00000000000000
